23
BQIFEC10.log	Energy: -1239770.2647057
C          1.66708        0.64688       -0.35085
C         -1.25942       -0.78758       -1.74636
C          1.66498       -0.66506        0.25083
C          2.91271       -1.29680        0.56531
Fe        -1.00894       -0.00312       -0.01329
H          0.36980        2.01934       -1.02198
H          0.37086       -2.06422        0.86626
H          2.90665       -2.28871        1.03127
N          0.44413        1.09717       -0.58954
N          0.45159       -1.14071        0.43882
N         -1.36492       -1.26589       -2.78464
C          4.04702       -0.64505        0.26592
C          4.05409        0.63233       -0.33561
C          2.91156        1.27313       -0.65189
H          5.01693       -1.10836        0.49551
H          5.02407        1.09984       -0.55156
H          2.90857        2.26404       -1.12136
C         -2.37520        1.29593       -0.47909
N         -3.20717        2.06339       -0.73766
C         -2.27610       -1.26977        0.66914
N         -2.98915       -2.06497        1.08256
C         -0.97404        0.81165        1.73882
N         -0.84881        1.33749        2.74619
