56
CIRTII.log	Energy: -1476101.2867578
Fe        -0.84794       -0.46993       -0.49736
O         -0.85903       -2.49779       -1.09191
H         -0.18029       -2.79290       -1.72246
H         -0.89782       -3.19158       -0.41240
O         -0.50606        0.09446       -2.54123
H         -1.03190       -0.25399       -3.28037
H          0.41626        0.12921       -2.84659
N          1.20704       -0.00964       -0.16734
N         -0.90752        1.65810        0.22460
N         -3.02277       -0.06578       -0.61186
N         -1.43190       -0.81413        1.61919
N          2.76857        1.57052       -0.00212
C          2.44931       -0.62095       -0.14718
C          2.78837       -1.96592       -0.17059
H          2.01637       -2.73831       -0.23612
C          4.13322       -2.28466       -0.11674
H          4.43646       -3.33554       -0.14062
C          5.11401       -1.30239       -0.01936
H          6.16526       -1.60043        0.02897
C          4.79323        0.04471        0.02504
H          5.56820        0.80992        0.11690
C          3.44291        0.36284       -0.04589
C          3.35478        2.88873        0.16293
H          4.28126        2.95384       -0.42757
H          2.66822        3.66332       -0.20350
H          3.59792        3.08364        1.22104
C          1.44653        1.28716       -0.08454
C          0.35681        2.29981       -0.16074
H          0.26825        2.65590       -1.20309
H          0.56699        3.18909        0.45936
C         -2.06886        2.24053       -0.49609
H         -2.28441        3.27196       -0.15722
H         -1.78836        2.28913       -1.55957
C         -3.30096        1.36788       -0.32821
H         -4.10080        1.74138       -0.98951
H         -3.70052        1.46367        0.69131
C         -3.58268       -0.43797       -1.93326
H         -3.29122       -1.46979       -2.18194
H         -4.68586       -0.36970       -1.93755
H         -3.19710        0.24798       -2.70332
C         -3.59193       -0.95886        0.42447
H         -4.68358       -0.80263        0.52907
H         -3.45418       -1.99281        0.06769
C         -2.90961       -0.77319        1.76403
H         -3.25249       -1.55209        2.46554
H         -3.20428        0.18262        2.21982
C         -0.89075       -2.09883        2.11716
H          0.18571       -2.16091        1.89744
H         -1.03818       -2.20172        3.20791
H         -1.41700       -2.93849        1.63449
C         -0.77494        0.30458        2.33600
H         -1.07984        0.31880        3.40056
H          0.30727        0.11126        2.31232
C         -1.08482        1.64609        1.70655
H         -0.44730        2.41592        2.17284
H         -2.11736        1.94702        1.93409
