51
EGEMEI.log	Energy: -2014110.1703853
C         -3.70399       -1.18419        1.50421
C         -2.38933       -2.64342       -0.09829
C         -2.55766       -1.23774        0.49600
C         -2.72993       -0.18661       -0.59259
C         -4.09375       -0.05298       -1.20897
C         -1.77197        1.63791       -1.86420
C         -0.93914        2.76112       -1.27981
C          2.68718       -0.68593        0.30866
C          1.14426        3.17767       -0.03836
N         -1.70867        0.52908       -0.90138
N          0.37288        2.19406       -0.86206
N          1.88865        0.27963        0.61539
S         -0.98260        1.03621        1.95244
S         -0.96860       -0.90143        1.41361
S          0.69840       -1.10040       -1.51735
Fe         0.04730        0.38991       -0.08095
H         -4.65792       -1.47153        1.03421
H         -3.51461       -1.89424        2.32553
H         -3.80844       -0.17602        1.93603
H         -1.53767       -2.68160       -0.79581
H         -2.23109       -3.37832        0.70835
H         -3.30569       -2.93477       -0.63829
H         -4.71059        0.64953       -0.61936
H         -4.61656       -1.02068       -1.20712
H         -4.05169        0.30885       -2.24578
H         -2.79861        1.98295       -2.05744
H         -1.34346        1.28898       -2.82215
H         -0.80915        3.59207       -1.99561
H         -1.42651        3.15158       -0.37296
H          0.50913        3.43165        0.82556
H          0.92317        1.97693       -1.70191
C          1.81994       -3.00050        0.18466
C          3.22458       -2.10224       -1.69138
C          2.17869       -1.75426       -0.63070
H          1.05424       -2.77827        0.94327
H          2.70830       -3.40696        0.69824
H          1.42992       -3.78454       -0.48380
H          4.09854       -2.61604       -1.25864
H          2.77697       -2.78403       -2.43231
H          3.57039       -1.20474       -2.22921
C          4.08777       -0.84215        0.81929
H          4.41053       -1.88955        0.75524
H          4.79092       -0.24970        0.20627
H          4.19562       -0.51528        1.86372
C          2.38024        1.44924        1.37044
C          2.47414        2.63922        0.42747
H          1.66426        1.65120        2.18324
H          3.36320        1.25761        1.82186
H          2.99762        3.45867        0.95030
H          3.10977        2.37679       -0.43947
H          1.28825        4.10148       -0.62885
