35
EHEWOF.log	Energy: -1977490.3869873
Fe         0.00000        0.00000        0.00000
Cl         1.05966        1.47856        1.76489
N         -1.86793        0.00248        1.06966
N          0.62138       -1.71319        1.16304
N          0.75512       -3.72995        1.93331
N         -3.36587        0.27589        2.60800
H         -3.84873        0.52358        3.46651
N          1.84224       -3.09034        2.42817
N         -4.02850       -0.34880        1.59589
C         -2.10134        0.46976        2.28646
H         -1.33785        0.95756        2.89914
C          1.70971       -1.88237        1.94307
H          2.39165       -1.06142        2.16786
C          0.04679       -2.90393        1.18839
H         -0.84442       -3.16284        0.61291
C         -3.08176       -0.48219        0.69713
Cl        -1.05966       -1.47856       -1.76489
N          1.86793       -0.00248       -1.06966
N          3.36587       -0.27589       -2.60800
H          3.84873       -0.52358       -3.46651
N          4.02850        0.34880       -1.59589
C          2.10134       -0.46976       -2.28646
H          1.33785       -0.95756       -2.89914
C          3.08176        0.48219       -0.69713
N         -0.62138        1.71319       -1.16304
N         -0.75512        3.72995       -1.93331
N         -1.84224        3.09034       -2.42817
C         -1.70971        1.88237       -1.94307
H         -2.39165        1.06142       -2.16786
C         -0.04679        2.90393       -1.18839
H          0.84442        3.16284       -0.61291
H         -3.22260       -0.96709       -0.27120
H          3.22260        0.96709        0.27120
H          0.58990       -4.71032        2.14007
H         -0.58990        4.71032       -2.14007
