34
FEBPIM.log	Energy: -1882728.2355267
Fe        -0.73108        0.82655       -0.00316
Cl        -1.47269        2.91521       -0.27852
Cl        -0.88748        0.73108        2.31135
O          1.27071        0.81968        0.05127
O         -0.52584        0.67288       -2.10111
N          1.18492       -1.45974       -0.13092
N         -0.16213       -1.19833       -0.11295
N         -2.55409       -0.27502       -0.17884
C          1.84997       -0.31146       -0.03580
C          3.33400       -0.35997       -0.04108
C          4.03404       -1.49664        0.29259
H          3.51364       -2.40464        0.61778
C          5.41752       -1.49627        0.26799
H          5.96730       -2.40023        0.54740
C          6.09861       -0.34686       -0.07478
H          7.19373       -0.34662       -0.07977
C          5.40707        0.79597       -0.42029
H          5.94417        1.70738       -0.69941
C          4.02847        0.78650       -0.40111
H          3.45167        1.68033       -0.65302
C         -1.05296       -2.10352       -0.19712
H         -0.82655       -3.17739       -0.27755
C         -2.44010       -1.63277       -0.19027
C         -3.53177       -2.44771       -0.18170
H         -3.39494       -3.53379       -0.17954
C         -4.79718       -1.89680       -0.17092
H         -5.67951       -2.54404       -0.15985
C         -4.92389       -0.53076       -0.17344
H         -5.90488       -0.04763       -0.16337
C         -3.78310        0.24621       -0.16831
H         -3.81061        1.34346       -0.15295
H          1.58282       -2.38173       -0.29141
H         -1.38412        0.33893       -2.41300
H         -0.60584        1.64421       -2.24796
