33
FEJNAK.log	Energy: -1576115.6415264
Fe         0.69961       -0.02405       -0.02429
N         -0.99347        1.13742        0.67994
N         -1.01675       -1.08054       -0.74506
C         -0.90239        2.29003        1.34345
H          0.12255        2.64165        1.51058
C         -2.01317        2.97946        1.77347
H         -1.88947        3.93186        2.29606
C         -3.24177        2.42722        1.56650
H         -4.14397        2.93529        1.92439
C         -3.35449        1.24410        0.89614
H         -4.33801        0.80518        0.71663
C         -2.21058        0.61416        0.43044
C         -2.22406       -0.61656       -0.37515
C         -3.38991       -1.26119       -0.75018
H         -4.36494       -0.87121       -0.45391
C         -3.29428       -2.40403       -1.51479
H         -4.20730       -2.92577       -1.82191
C         -2.07916       -2.88268       -1.86447
H         -1.97073       -3.79382       -2.45982
C         -0.94473       -2.19427       -1.47366
H          0.07368       -2.51657       -1.72024
O          1.98378        1.38650        0.47752
O          0.77365        0.94169       -1.75612
C          2.25125        2.25853       -0.44035
C          1.42829        2.05215       -1.73825
O          1.43384        2.88928       -2.61403
O          3.04107        3.17401       -0.34869
O          0.68466       -0.98408        1.71734
O          1.90273       -1.50205       -0.49917
C          2.21082       -2.31679        0.46271
C          1.39953       -2.05801        1.75347
O          3.05991       -3.18095        0.41167
O          1.46884       -2.82090        2.69643
