49
FEPICC43.log	Energy: -1437399.1713633
Fe         0.12190       -0.41003        0.14365
N          2.19233       -0.28690       -0.08892
N         -0.04123       -0.81778       -1.90858
H          0.25966       -1.78046       -2.09635
H          0.57678       -0.24470       -2.49080
N          0.70470       -2.29819        0.80073
H          0.07504       -2.68137        1.51227
H          0.67318       -2.99071        0.04299
C          2.88058       -1.30246        0.45765
C          4.19112        0.46233       -1.16442
H          4.67853        1.19018       -1.81831
C          4.23055       -1.47544        0.22238
H          4.75552       -2.32037        0.67836
C          2.07111       -2.21309        1.31533
H          2.03140       -1.80965        2.34422
H          2.55270       -3.20213        1.40481
C          2.84490        0.57317       -0.88555
H          2.25559        1.39748       -1.29794
C          4.89935       -0.58937       -0.59103
H          5.96830       -0.71408       -0.78888
N         -1.87134       -1.00530        0.00631
C         -3.70436       -1.38195       -1.49861
H         -4.07451       -1.38293       -2.52793
C         -2.67645       -1.40501        1.00811
H         -2.23717       -1.40977        2.01187
C         -1.44837       -0.65744       -2.35183
H         -1.60619        0.40335       -2.61404
H         -1.66814       -1.24067       -3.26187
C         -2.38521       -1.03075       -1.24023
C         -4.52412       -1.74329       -0.44475
H         -5.56788       -2.02055       -0.62097
C         -3.99140       -1.76621        0.83571
H         -4.59159       -2.06936        1.69768
N          0.06339        0.17059        2.14177
H         -0.20116       -0.54924        2.82175
N         -0.30993        1.63167       -0.02521
C         -0.66989        2.25051        1.11727
C         -0.78540        1.35171        2.33963
H         -1.83348        1.01773        2.43566
H         -0.53658        1.90593        3.26006
C         -0.18963        2.40146       -1.13432
C         -0.43111        3.76230       -1.12788
H         -0.31913        4.33527       -2.05254
C         -0.92306        3.60230        1.18926
H         -1.20384        4.05355        2.14527
C         -0.79999        4.36956        0.05038
H         -0.99087        5.44665        0.08477
H          0.10932        1.89703       -2.05725
H          1.02803        0.42116        2.38683
