33
GOGHOA.log	Energy: -1552508.1698664
Fe        -0.14904       -0.10462       -0.55353
N         -2.10845        0.11821        0.02376
N          2.81815        0.02389       -0.55472
O         -0.37521        1.89335       -0.25741
O         -0.90444       -1.98140       -0.59199
O          0.61647       -0.39016        1.21160
O         -0.57065        0.02407       -2.48967
H         -0.78010       -0.89613       -2.74125
H          0.29324        0.22355       -2.89587
C         -1.47866        2.36546        0.13258
C         -2.56192        1.33428        0.31654
C         -3.85417        1.52618        0.71363
H         -4.17958        2.54278        0.95026
C         -4.67435        0.42763        0.77839
H         -5.71917        0.54700        1.08512
C         -4.19932       -0.80891        0.46960
H         -4.81642       -1.71119        0.51365
C         -2.88880       -0.94595        0.09822
C         -2.12886       -2.19976       -0.26791
C          1.80717       -0.58239        1.63586
C          2.97227       -0.23898        0.76203
O          2.07316       -0.99921        2.75746
O          1.67178       -0.10131       -1.22078
C          4.25084       -0.17023        1.28205
H          4.33312       -0.41003        2.34517
C          5.32375        0.16471        0.49205
H          6.32906        0.20543        0.92089
C          5.11101        0.44468       -0.80453
H          5.93620        0.72948       -1.46472
C          3.87041        0.39121       -1.33705
O         -2.70155       -3.28320       -0.25431
O         -1.73418        3.54479        0.36297
H          3.61144        0.59142       -2.37655
