37
GUGTUX.log	Energy: -1954185.1359295
Fe        -0.10618       -0.60550       -0.41669
Cl         0.06115       -2.85454       -0.34374
Cl        -0.32847       -0.38197       -2.68952
O          0.12591       -0.67790        1.77498
N         -2.17881       -0.31401       -0.03792
N         -0.22119        1.42217        0.01684
N          1.92535       -0.00710       -0.45893
C         -3.12887       -1.26677       -0.09307
C         -4.46671       -0.97554        0.11463
C         -4.83658        0.32642        0.37651
C         -3.86994        1.31653        0.44116
C         -2.54830        0.95097        0.22656
C         -1.43698        1.97406        0.29999
C          0.94795        2.15625        0.07559
C          2.16054        1.27638       -0.13326
C          3.44523        1.77079       -0.00469
C          2.96443       -0.81538       -0.72501
H         -2.76731       -2.27762       -0.31101
H         -5.20654       -1.77869        0.06007
H         -5.89057        0.57797        0.53534
H          0.30113        0.24616        2.01536
H          3.56463        2.82248        0.26937
H          2.70288       -1.84178       -1.00432
C          0.80613       -1.57190        2.67503
C          2.27350       -1.55354        2.57095
H          0.46073       -1.32659        3.69736
H          2.69455       -0.54097        2.71321
H          2.71405       -2.20456        3.34592
C          4.50898        0.92297       -0.24712
C          4.27372       -0.36699       -0.62917
H          5.53517        1.29265       -0.14916
H          5.09253       -1.05743       -0.84983
O         -1.70180        3.12849        0.60184
O          1.06883        3.35019        0.25947
H          0.40609       -2.56448        2.41596
H         -4.08562        2.36664        0.65080
H          2.60370       -1.92942        1.59133
