44
GULVOA.log	Energy: -1487089.6619657
Fe        -0.01975        0.50530        0.03203
O         -0.79261        1.96242        1.17075
O         -1.19751       -0.85937        0.73253
N         -1.54843        0.88519       -1.38809
C         -2.45983       -1.14899        0.55149
C          0.17891        2.73957        1.81966
H         -0.30710        3.37486        2.58999
H          0.72316        3.42979        1.12774
N          1.53518        0.81166        1.45775
C          1.18230        1.79958        2.46706
H          0.67425        1.27275        3.29721
C         -0.12440        2.78348       -1.74662
H          0.35177        3.46399       -2.47341
H         -0.56927        3.35952       -0.92159
C         -3.05725       -2.13871        1.35502
H         -2.43471       -2.61225        2.11798
C         -3.25444       -0.54598       -0.44411
C         -4.38455       -2.47979        1.18001
H         -4.81386       -3.24897        1.83326
C         -5.16590       -1.89185        0.22332
H         -6.21458       -2.17675        0.09860
C         -1.17607        1.89164       -2.37930
H         -2.04699        2.47969       -2.72312
H         -0.74506        1.38363       -3.26667
C         -2.75223        0.45221       -1.36835
H         -3.47836        0.84336       -2.10309
C         -4.60249       -0.93883       -0.58525
H         -5.20308       -0.45721       -1.36644
O          0.84504        1.95361       -1.13157
C          3.05107       -2.04829       -1.46117
H          2.43582       -2.45034       -2.27161
C          2.72302        0.35120        1.42657
H          3.44781        0.69904        2.18519
C          5.12370       -1.93098       -0.25841
H          6.16414       -2.24307       -0.12887
C          4.36333       -2.42317       -1.30409
H          4.80441       -3.13263       -2.01343
C          2.42936       -1.14101       -0.57989
C          3.22246       -0.60763        0.47396
C          4.55206       -1.03296        0.61711
H          5.14337       -0.62544        1.44571
O          1.16032       -0.84307       -0.74019
H          1.37685        1.47247       -1.79087
H          2.08146        2.30616        2.86868
