37
HOQFIE.log	Energy: -2125586.9665720
Fe         0.12731       -0.50099        0.99508
N          1.52320       -0.51336       -0.68758
N         -0.31874        1.46973       -0.11231
N         -1.47659       -0.93490       -0.44987
C         -1.78401        1.45643       -0.33808
H         -2.25749        1.56292        0.65429
H         -2.10723        2.28939       -0.98699
C          3.55103       -1.28912       -1.68189
C          0.37851        1.49917       -1.42638
H         -0.33737        1.19795       -2.21059
H          0.69102        2.52785       -1.67524
C         -2.84187       -2.36803       -1.78233
H         -3.07345       -3.38573       -2.10833
C         -1.81850       -2.15998       -0.88822
H         -1.21923       -2.97399       -0.46341
C          1.54242        0.54998       -1.50218
C         -0.36935        3.93938        0.21207
C         -2.18890        0.12302       -0.89482
C          0.05556        2.63068        0.73527
H          1.14592        2.59153        0.88848
H         -0.38401        2.44212        1.73032
C          2.51861       -1.41633       -0.78356
H          2.44415       -2.24729       -0.07262
C         -3.22502       -0.01881       -1.79502
H         -3.76748        0.86517       -2.14174
C         -3.54859       -1.28707       -2.24779
H         -4.36452       -1.42154       -2.96552
C         -0.67383        5.00395       -0.17197
Cl         1.92033        0.37628        2.16584
Cl        -1.44526        0.01069        2.60415
Cl         0.42982       -2.69041        1.47162
H         -0.96009        5.98180       -0.51479
C          3.55752       -0.20566       -2.53618
H          4.36284       -0.07531       -3.26636
C          2.54257        0.72856       -2.44734
H          2.52206        1.60754       -3.09823
H          4.33976       -2.04554       -1.71009
