31
JUDZUF.log	Energy: -1280779.9503141
Fe        -1.25456       -0.44433       -0.00685
O         -3.21094        0.33014       -0.26824
O         -1.77304       -2.50198        0.20285
O         -1.19714       -0.85937       -2.08408
O         -1.51825       -0.37565        2.10962
N          0.94617       -0.87052        0.07294
N         -0.35330        1.49225       -0.02777
N          1.47387        2.72549       -0.02905
C          1.56066       -2.07184        0.13139
H          0.89044       -2.93439        0.21203
C          2.92580       -2.22474        0.09281
H          3.36649       -3.22351        0.14756
C          3.70212       -1.09325       -0.01153
H          4.79341       -1.16962       -0.04778
C          3.09695        0.14427       -0.07571
H          3.70864        1.04628       -0.16273
C          1.72548        0.22062       -0.02200
C          0.97907        1.46676       -0.03850
C          0.42314        3.58563        0.02515
H          0.54627        4.66771        0.05383
C         -0.70366        2.81311        0.02244
H         -1.73920        3.15083        0.05938
H         -4.02738       -0.19549       -0.31257
H         -3.39119        1.17068       -0.71874
H         -2.14844       -2.82564        1.03932
H         -2.14484       -3.03575       -0.51928
H         -0.32151       -1.04439       -2.46510
H         -1.64557       -0.27382       -2.71761
H         -2.13497        0.30423        2.43307
H         -0.71951       -0.29477        2.65861
H          2.45631        2.99119       -0.02022
