31
JUQZEC.log	Energy: -2050183.5897287
Fe        -0.60120       -0.73909       -0.03416
Cl        -0.61475       -0.88313       -2.32469
Cl        -0.35071       -0.53211        2.38286
Cl        -2.12376       -2.38884        0.31095
N         -1.84332        1.01304       -0.13729
N          0.70456        0.87450       -0.05756
N          1.35490       -1.61366       -0.01425
N          1.53832       -2.95815       -0.07643
H          2.35448       -3.32266        0.41706
H          0.66414       -3.43940        0.14252
N         -3.21493        0.92419       -0.22575
H         -3.72740        1.59273        0.35214
H         -3.48647       -0.05122       -0.06752
C         -1.26982        2.17501       -0.06804
C          0.20368        2.11786       -0.02983
C          2.02032        0.62313       -0.03291
C          2.37816       -0.81269       -0.05841
C          3.78361       -1.29575       -0.16848
H          4.14699       -1.72895        0.78373
H          4.47514       -0.49170       -0.45249
H          3.84257       -2.08838       -0.93643
C          2.92350        1.68216        0.01845
H          3.99874        1.49780        0.05127
C          2.42963        2.97269        0.02890
H          3.12516        3.81704        0.06341
C          1.06575        3.21247        0.00515
H          0.67788        4.23215        0.02167
C         -2.02962        3.45949       -0.04164
H         -2.81755        3.44414       -0.81600
H         -1.38529        4.32958       -0.22207
H         -2.52827        3.60892        0.93563
