31
LANTUP.log	Energy: -1904916.9706768
Fe         0.00533       -0.75434       -0.00653
Cl        -0.13192       -1.00078        2.26599
Cl         0.07653       -2.97493       -0.51620
O         -1.39208        3.16781        0.09814
O          0.06986       -0.46658       -2.11491
N          2.07648       -0.28494       -0.02352
N         -2.05470       -0.28284       -0.09186
N          0.01294        1.32167        0.02041
C          1.20744        1.98028       -0.00571
C         -3.06197       -1.17615       -0.12495
C         -2.35822        1.02399       -0.08412
C         -1.18732        1.98648        0.01891
H         -2.75866       -2.22859       -0.11610
O          1.42094        3.17733       -0.03436
C         -4.38567       -0.77855       -0.17284
C         -4.68949        0.54596       -0.17693
C         -3.66687        1.47415       -0.12037
H         -5.16655       -1.54405       -0.20240
H         -5.73171        0.87993       -0.21205
H         -3.83249        2.55441       -0.09868
C          3.08053       -1.17946       -0.04649
C          4.39783       -0.77792       -0.10624
C          4.69567        0.57451       -0.13857
C          3.66972        1.47522       -0.10418
C          2.37158        1.02805       -0.04152
H          2.77782       -2.23164       -0.02696
H          5.18842       -1.53338       -0.12620
H          5.73577        0.91193       -0.18791
H          3.82332        2.55789       -0.12094
H         -0.78111       -0.11549       -2.42676
H          0.07610       -1.41617       -2.36691
