47
NIDLOC.log	Energy: -1506436.4843537
Fe        -0.23176        0.03453       -0.40679
N          1.71869       -0.72432        0.38197
C          1.26354       -1.82930        1.27633
H          2.10679       -2.25925        1.84700
H          0.86696       -2.60939        0.60855
C          0.17544       -1.39210        2.25333
H          0.60459       -0.78133        3.06182
N         -0.88463       -0.59848        1.56578
C         -0.11945        1.65413        2.24460
H         -0.45975        2.64021        2.60409
H          0.72027        1.36100        2.89132
N          0.35954        1.74453        0.83691
C          1.84573        1.74464        0.76625
H          2.26682        2.53532        1.41786
H          2.11965        1.97795       -0.27195
C          2.39751        0.37469        1.15062
H          3.48288        0.36278        0.96976
H          2.27359        0.19383        2.22831
C          2.62352       -1.30593       -0.69040
H          1.99510       -2.07985       -1.15725
C          2.94160       -0.27031       -1.75973
H          3.44568       -0.76594       -2.60449
H          3.62962        0.51074       -1.38947
H          2.02947        0.21358       -2.14253
C          3.90860       -1.93876       -0.14841
H          4.45417       -2.39566       -0.98935
H          3.72619       -2.73783        0.58769
H          4.58754       -1.19718        0.30607
C         -0.20332        2.89651        0.10745
H          0.31894        3.83920        0.35412
H         -1.26133        3.00697        0.39590
C         -0.19294        2.65814       -1.39340
O         -0.42644        3.57971       -2.15616
O          0.00365        1.42009       -1.76181
N         -0.29691       -1.62064       -1.49409
N         -1.28977       -2.13797       -1.93551
C         -2.12151       -1.36048        1.26944
H         -2.72418       -1.54395        2.17703
H         -1.84621       -2.33347        0.83081
C         -2.93358       -0.56622        0.24637
O         -4.14102       -0.70193        0.15866
O         -2.21980        0.24972       -0.48791
C         -1.24748        0.63599        2.33363
H         -1.48244        0.38004        3.38400
H         -2.15595        1.04847        1.87374
N         -2.20235       -2.68726       -2.36986
H         -0.26164       -2.28168        2.73849
