38
NOQWOH.log	Energy: -1514265.0138998
C          0.67022       -2.59721        0.07025
C          0.29967       -0.94516       -1.94327
C         -2.44460        0.17308       -0.03729
Fe         0.20291       -0.71704        0.00279
N          0.41795       -1.08117       -3.08092
N         -1.75670       -1.01406        0.04381
C         -4.46882        1.48539       -0.13329
H         -5.56300        1.53644       -0.15216
C         -3.85127        0.21540       -0.04699
C         -3.71630        2.61807       -0.17184
H         -4.21111        3.59430       -0.22681
C         -2.43888       -2.14200        0.14931
H         -1.83536       -3.05341        0.21559
C         -3.84589       -2.17710        0.17175
H         -4.35373       -3.14043        0.26629
C         -4.53745       -1.00351        0.06139
H         -5.63366       -0.99546        0.06567
C          5.70476       -0.58298       -0.10988
H          6.23989       -0.24974       -1.01672
H          6.33053       -0.29796        0.75266
C          3.18484       -0.60690       -0.06948
C          4.38188        0.08593       -0.02458
C          3.20783        2.03753        0.14296
H          3.18335        3.12938        0.23780
C          2.01169        1.35831        0.03401
C          0.68682        2.03976       -0.01935
C         -1.67573        1.34501       -0.08282
C         -2.30705        2.58207       -0.13419
H         -1.69976        3.48653       -0.15384
N          2.01473       -0.00724       -0.02501
N         -0.27124        1.07471       -0.05936
N          4.39723        1.42196        0.11823
O          0.58823        3.25614       -0.01491
C          0.26689       -0.66865        1.96915
N          0.29231       -0.56766        3.11671
N          0.90829       -3.73184        0.08332
H          3.15645       -1.70056       -0.13273
H          5.61552       -1.68015       -0.14134
