47
OTAGUN.log	Energy: -1851152.2355712
Fe         0.00000       -0.00000        0.21510
S         -0.49806       -1.50752       -1.37961
S          0.49806        1.50752       -1.37961
N         -0.43217       -1.40675        1.51003
N          0.43217        1.40675        1.51003
N         -1.95657        0.45182        0.17852
N          1.95657       -0.45182        0.17852
C         -0.82224       -2.34434        2.04366
C          0.82224        2.34434        2.04366
C         -2.47502        1.54981        0.77017
C          2.47502       -1.54981        0.77017
H         -1.75507        2.19462        1.27844
H          1.75507       -2.19462        1.27844
C         -3.82452        1.84231        0.75263
H         -4.17851        2.74189        1.26300
C         -4.69264        1.00270        0.08401
H         -5.76469        1.21848        0.04467
C         -4.17944       -0.12396       -0.53202
C          4.17944        0.12396       -0.53202
H         -4.82904       -0.82677       -1.06093
H          4.82904        0.82677       -1.06093
C         -2.82060       -0.38411       -0.44755
C          2.82060        0.38411       -0.44755
C         -2.26103       -1.65933       -1.01179
C          2.26103        1.65933       -1.01179
H         -2.31734       -2.45813       -0.24831
H          2.31734        2.45813       -0.24831
H         -2.81234       -2.00604       -1.89974
H          2.81234        2.00604       -1.89974
C         -0.59106       -0.47303       -2.87978
C          0.59107        0.47303       -2.87978
H         -1.54142        0.08755       -2.86254
H          1.54142       -0.08755       -2.86254
H         -0.58627       -1.12159       -3.77114
H          0.58627        1.12158       -3.77114
B         -1.44388       -3.64573        2.70591
H         -1.96843       -3.32958        3.76825
C          3.82452       -1.84231        0.75263
H          4.17851       -2.74188        1.26300
C          4.69264       -1.00270        0.08401
H          5.76469       -1.21848        0.04467
B          1.44387        3.64573        2.70591
H          1.96843        3.32958        3.76825
H         -2.28445       -4.04686        1.88774
H          2.28445        4.04686        1.88774
H         -0.54556       -4.47203        2.85263
H          0.54556        4.47203        2.85263
