34
OVUPUR.log	Energy: -2043295.4482510
Fe         0.39676       -0.95686        0.03134
Cl         2.47565       -1.50673       -0.75653
Cl         0.63038       -1.52154        2.22324
Cl        -0.68650       -2.83043       -0.75425
N         -1.53655        0.05452        0.32444
N          0.01959        0.15146       -1.85199
H          0.41202       -0.53430       -2.49937
O          1.06940        1.02600        0.49928
C         -2.15591        0.21325        1.51263
H         -1.60698       -0.20391        2.36603
C         -4.01386        1.28607        0.48610
C         -3.37439        1.15031       -0.74057
H         -3.82149        1.51400       -1.66983
C         -2.14574        0.53945       -0.75193
C         -1.41915        0.34945       -2.07459
H         -1.62417        1.18719       -2.76545
H         -1.80526       -0.58309       -2.52255
C          0.83378        1.37158       -1.83599
H          1.86643        1.04151       -2.03546
C          0.83300        2.06786       -0.51390
H         -0.15949        2.50224       -0.28664
C          1.94519        3.04783       -0.31120
H          1.59191        4.08789       -0.40035
H          2.67453        2.91326       -1.13355
C          2.50117        2.73609        0.94067
H          3.59315        2.89942        0.97553
H          2.11101        3.43722        1.70645
C          2.16405        1.39269        1.33242
H          1.85336        1.27066        2.38159
H          2.96425        0.65347        1.14254
C         -3.35893        0.82525        1.62048
H         -3.82086        0.92848        2.60718
H         -4.99714        1.76113        0.56055
H          0.52921        2.07229       -2.63936
