58
QIFBIR.log	Energy: -1464291.5492703
Fe        -0.39867        0.01248        0.08585
N          1.48426       -0.01407       -0.01687
N         -0.09128        1.99382        0.38635
H         -0.12440        2.08483        1.40823
N         -2.43153        0.04887        0.20864
H         -2.62628       -0.02439        1.21269
N         -0.14197       -1.98921       -0.04855
H         -0.13302       -2.24821        0.94527
N         -0.41031       -0.20934        2.00636
N         -0.49151        0.21175       -1.82586
C          2.16648        1.14569        0.09559
C          1.28164        2.35098       -0.02243
H          1.20684        2.52376       -1.11614
C         -1.10378        2.91486       -0.14314
H         -0.86428        3.95578        0.13472
C         -2.47657        2.55118        0.36939
H         -2.46797        2.47747        1.47484
H         -3.16051        3.38665        0.14417
C         -3.07382        1.29584       -0.24503
H         -2.98190        1.33926       -1.34293
H         -4.15572        1.24980       -0.02202
C         -3.12534       -1.10019       -0.42779
H         -4.20194       -1.04992       -0.18256
H         -3.04418       -0.97188       -1.51984
C         -2.56287       -2.44782       -0.02297
H         -2.51198       -2.53606        1.08015
H         -3.28415       -3.21979       -0.33944
C         -1.22129       -2.78490       -0.64319
H         -1.23863       -2.58021       -1.72757
H         -1.01671       -3.86272       -0.52454
C          1.18392       -2.29787       -0.55365
H          1.09411       -2.21862       -1.65770
C          2.12735       -1.18041       -0.18536
C          3.52928        1.13434        0.17536
C         -0.56139       -0.41156        3.11624
C         -0.75508       -0.71016        4.51845
H         -1.39592       -1.60104        4.63215
H         -1.23738        0.13944        5.03110
C         -0.47585        0.33842       -2.95032
C         -0.45020        0.50002       -4.40439
H         -0.97913       -0.33775       -4.88858
H         -0.94317        1.44419       -4.69003
H          0.59258        0.51890       -4.76239
C          1.83248        3.60173        0.59379
H          1.99199        3.48714        1.68083
H          2.80098        3.86644        0.14258
H          1.17236        4.46697        0.43114
C          3.49680       -1.23864       -0.12873
H          4.02586       -2.18568       -0.25117
C          4.19577       -0.06371        0.08844
C          1.71283       -3.68213       -0.25542
H          1.03110       -4.46922       -0.61075
H          2.67079       -3.84807       -0.77066
H          1.88290       -3.83069        0.82591
H          5.28742       -0.08733        0.15962
H          4.08697        2.06632        0.29146
H         -1.07277        2.86068       -1.24414
H          0.21603       -0.90728        5.00385
