37
RUZNAB.log	Energy: -1983505.7110239
Fe         0.01398       -0.78394        0.04483
N          2.17608       -0.57005        0.31608
C          2.97550       -1.42936        0.97325
H          2.44587       -2.25752        1.46307
C          4.34224       -1.24154        1.02217
H          4.98314       -1.95286        1.55607
N          4.93349       -0.18940        0.43882
C          4.14787        0.65485       -0.22287
H          4.62290        1.50944       -0.72074
C          2.76653        0.46266       -0.30728
C          1.87940        1.34711       -1.06471
N          0.62106        0.92268       -1.25382
N          0.01256        1.91777       -1.91969
H         -0.95635        1.79976       -2.20054
C          0.84622        2.94300       -2.16363
H          0.51954        3.82747       -2.70973
C          2.07098        2.60959       -1.62808
H          2.97647        3.21268       -1.64138
N         -2.14996       -0.63203       -0.31893
C         -2.79763        0.38175        0.29532
C         -1.96214        1.30236        1.05579
N         -0.67848        0.94705        1.25163
N         -0.12112        1.98300        1.90670
H          0.85292        1.92028        2.18721
C         -1.00680        2.97190        2.12388
H         -0.72427        3.88207        2.65240
C         -2.21565        2.57061        1.60177
H         -3.14807        3.13108        1.60290
Cl        -0.20494       -2.35429        1.82859
N         -4.91563       -0.34491       -0.52988
C         -4.18313        0.52136        0.17119
H         -4.70727        1.35110        0.66132
C         -4.26835       -1.36994       -1.10487
H         -4.86279       -2.09691       -1.66998
C         -2.89723       -1.50562       -1.00237
H         -2.32496       -2.31486       -1.47784
Cl         0.35945       -2.42103       -1.74637
