30
SICCAI.log	Energy: -2099058.8327046
Fe         1.06422       -0.01838        0.03221
Cl         2.10017       -1.97887        0.76299
Cl         2.30533        0.30632       -1.90670
Cl         2.20276        1.40643        1.41912
N         -0.46314       -0.24762        1.53059
N         -0.25892        1.56922       -0.56941
N         -0.34983       -1.21314       -1.10993
N         -1.80100       -0.14189        1.27556
N         -1.61335        1.42119       -0.62633
N         -1.69817       -1.03820       -1.01981
B         -2.25565        0.10633       -0.17289
C         -0.34216       -0.48795        2.82828
C         -1.59027       -0.55888        3.44736
C         -2.47177       -0.33686        2.42597
C         -0.00015        2.81891       -0.93228
C         -1.16873        3.50212       -1.22420
C         -2.17068        2.58936       -1.02644
C         -0.17489       -2.32484       -1.81818
C         -1.38773       -2.87988       -2.17431
C         -2.30523       -2.04236       -1.66592
H         -3.47047        0.16011       -0.24777
H          0.66259       -0.60206        3.23646
H         -1.81079       -0.74505        4.49684
H         -3.56227       -0.29665        2.42471
H          1.04079        3.14283       -0.95430
H         -1.26977        4.53641       -1.55072
H         -3.25300        2.67009       -1.12837
H          0.84661       -2.66224       -1.99659
H         -1.55978       -3.78390       -2.75724
H         -3.39543       -2.07373       -1.70448
