49
TAPZOC.log	Energy: -1805286.0729952
Fe         0.00000        0.42916        0.00000
N         -0.92990       -1.43762       -1.12525
N          0.92990       -1.43762        1.12525
C         -0.17515       -2.64335       -0.73564
C          0.17515       -2.64335        0.73564
H         -0.73745       -3.56745       -0.98740
H          0.73745       -3.56745        0.98739
H          0.74356       -2.66875       -1.34210
H         -0.74356       -2.66875        1.34210
C         -0.91969       -1.33945       -2.60129
C          0.91969       -1.33945        2.60129
H          0.11792       -1.27278       -2.95614
H         -0.11792       -1.27278        2.95613
H         -1.40816       -2.22254       -3.06067
H          1.40816       -2.22255        3.06067
H         -1.41275       -0.40866       -2.91210
H          1.41275       -0.40867        2.91210
C         -2.34681       -1.55321       -0.68086
C          2.34681       -1.55321        0.68086
H         -2.93439       -2.11846       -1.42984
H          2.93439       -2.11846        1.42983
H         -2.38474       -2.13523        0.25134
H          2.38474       -2.13523       -0.25134
Cl        -0.43692        1.83400       -1.91120
Cl         0.43691        1.83400        1.91120
N         -2.23057        0.55187        0.59896
C         -2.94957       -0.18122       -0.45836
H         -4.02783       -0.27590       -0.20861
H         -2.86337        0.41673       -1.37867
C         -2.70650        1.94919        0.60222
H         -3.79554        1.98502        0.80784
C         -2.51765       -0.01735        1.92021
H         -1.91853        0.53028        2.66337
H         -3.59577        0.06420        2.16833
N          2.23057        0.55187       -0.59896
C          2.94957       -0.18122        0.45835
H          4.02783       -0.27590        0.20861
H          2.86337        0.41673        1.37867
C          2.70650        1.94919       -0.60222
H          3.79554        1.98502       -0.80784
C          2.51765       -0.01735       -1.92021
H          1.91853        0.53029       -2.66337
H          3.59578        0.06420       -2.16833
H          2.15369        2.50397       -1.37343
H         -2.15369        2.50397        1.37343
H         -2.48004        2.40330       -0.37249
H          2.23169       -1.07819       -1.96762
H         -2.23169       -1.07820        1.96762
H          2.48004        2.40330        0.37249
