35
VIRJUC.log	Energy: -1489625.6879518
Fe        -0.41249       -0.77252        0.05235
C         -0.78102       -2.67912        0.31912
N         -0.95788       -3.78994        0.53886
C         -0.34207       -0.65104        2.01748
N         -0.29807       -0.50607        3.15766
C         -0.54787       -0.99673       -1.89389
N         -0.64800       -1.04961       -3.03982
N          1.53112       -0.97781       -0.04127
C          1.93459        2.63898        0.04142
H          1.29544        3.52159        0.07207
C          1.34966        1.39620        0.00069
C          2.17719        0.24287       -0.03164
N         -0.01338        1.07344       -0.03426
C         -1.04109        1.96064       -0.01266
O         -0.99417        3.19272        0.03553
C         -2.33641        1.21429       -0.03908
C         -3.57404        1.82323       -0.14230
H         -3.61954        2.91712       -0.19329
N         -4.71811        1.12726       -0.19145
C         -4.60853       -0.20184       -0.11994
H         -5.53517       -0.78897       -0.15254
C         -3.38193       -0.85375       -0.02724
H         -3.27551       -1.94139        0.02173
N         -2.24933       -0.13776        0.01842
C          2.25628       -2.07621       -0.15016
C          3.65819       -2.04252       -0.25160
H          4.19871       -2.98821       -0.35087
C          4.31655       -0.84963       -0.20257
H          5.40944       -0.80091       -0.26161
C          3.57768        0.35208       -0.08268
C          4.15142        1.64194       -0.03674
H          5.24209        1.73694       -0.06460
C          3.34864        2.74476        0.03044
H          3.79660        3.74377        0.06614
H          1.69819       -3.01782       -0.15125
