39
YEMRUE.log	Energy: -1931663.7616305
Fe        -0.07749       -0.66395        0.66095
Cl         0.84081       -2.78562        0.58523
Cl         0.15956       -0.34299        2.91785
N         -0.12054       -0.46571       -1.56245
O         -1.91230       -1.29386        0.67545
O         -3.92452       -1.98670        0.12008
C         -1.12847       -1.41481       -2.11964
H         -1.07534       -1.36532       -3.22681
H         -0.79980       -2.41932       -1.80549
C         -2.53743       -1.16488       -1.64422
H         -2.83435       -0.11035       -1.80179
H         -3.23062       -1.76043       -2.25822
C         -2.82417       -1.52292       -0.18765
C         -0.96872        1.80539       -0.91088
N         -0.82357        1.37374        0.34923
C         -1.23146        2.19172        1.32012
H         -1.07985        1.78273        2.32815
C         -1.79943        3.41532        1.11489
H         -2.11701        4.02607        1.96298
C         -1.96557        3.81231       -0.18337
H         -2.43465        4.77676       -0.40904
C         -1.54449        3.01673       -1.20132
H         -1.66062        3.32371       -2.24534
C          1.25291       -0.82652       -2.00032
H          1.36501       -1.91186       -1.82604
H          1.41048       -0.61285       -3.07434
C          2.25402       -0.13483       -1.13674
N          1.85580        0.13636        0.12262
C          2.69587        0.74714        0.95458
H          2.29375        0.90620        1.96313
C          3.96423        1.11095        0.59751
H          4.62206        1.60485        1.31658
C          4.38093        0.79224       -0.67252
H          5.40029        1.04407       -0.98694
C          3.53825        0.19816       -1.55742
H          3.85107       -0.03478       -2.57940
C         -0.40146        0.93871       -1.98158
H         -1.04958        0.94519       -2.87556
H          0.55039        1.40026       -2.29771
