37
YUKPAV.log	Energy: -1984597.8201705
Fe         0.25811       -0.42994       -0.42791
N          1.15168        0.70140        1.27551
N         -1.37774       -0.58074        1.10125
C          0.30672        0.55511        2.50689
C         -0.65962       -0.58190        2.39786
C         -2.32008        0.58643        1.00274
C          1.18797        2.12072        0.83483
C          2.55113        0.28476        1.57118
C         -2.16470       -1.84455        0.98976
H          0.95350        0.40246        3.38696
H         -0.22374        1.50270        2.68640
H         -1.37654       -0.56235        3.24346
H         -0.10980       -1.53521        2.43153
H         -3.35915        0.23557        1.11385
H         -2.13808        1.25788        1.85654
H          1.54680        2.77442        1.65448
H          1.91204        2.16221        0.00706
H          2.54686       -0.76444        1.89606
H          3.13008        0.34149        0.63824
H          2.98916        0.93848        2.34834
H         -1.46054       -2.68903        0.98580
H         -2.69264       -1.84604        0.02737
H         -2.87369       -1.92667        1.83472
N         -0.75451        1.58612       -0.61027
C         -2.17712        1.32862       -0.29749
C         -0.16809        2.57630        0.34265
C         -0.66863        2.12837       -1.99977
H         -2.75274        2.27568       -0.26813
H         -2.56235        0.70762       -1.11999
H         -0.07274        3.56156       -0.14375
H         -0.86020        2.72004        1.18572
H         -1.27165        3.05187       -2.08458
Cl         1.15324       -2.44205        0.24072
Cl         1.98245        0.18441       -1.81912
Cl        -1.12677       -1.27049       -2.07327
H         -1.03348        1.35645       -2.69212
H          0.38483        2.32145       -2.24108
